[Molden Format]
made by pyscf v[2.3.0]
[Atoms] (AU)
C   1   6     0.00000000000000     2.63805766989283     0.00000000000000
C   2   6     2.28467888459916     1.31902883494641     0.00000000000000
C   3   6     2.28467888459916    -1.31902883494641     0.00000000000000
C   4   6     0.00000000000000    -2.63805766989283     0.00000000000000
C   5   6    -2.28467888459916    -1.31902883494641     0.00000000000000
C   6   6    -2.28467888459916     1.31902883494641     0.00000000000000
H   7   1     0.00000000000000     4.68463106279679     0.00000000000000
H   8   1     4.05724198944119     2.34326039446068     0.00000000000000
H   9   1     4.05724198944119    -2.34326039446068     0.00000000000000
H   10   1     0.00000000000000    -4.68463106279679     0.00000000000000
H   11   1    -4.05724198944119    -2.34326039446068     0.00000000000000
H   12   1    -4.05724198944119     2.34326039446068     0.00000000000000
[GTO]
1 0
 s    3 1.00
             71.616837    0.15432897000916
             13.045096    0.53532814003178
             3.5305122     0.4446345400264
 s    3 1.00
             2.9412494  -0.099967230075964
             0.6834831    0.39951283030359
             0.2222899    0.70011547053201
 p    3 1.00
             2.9412494    0.15591627210511
             0.6834831    0.60768372820466
             0.2222899    0.39195739529202

2 0
 s    3 1.00
             71.616837    0.15432897000916
             13.045096    0.53532814003178
             3.5305122     0.4446345400264
 s    3 1.00
             2.9412494  -0.099967230075964
             0.6834831    0.39951283030359
             0.2222899    0.70011547053201
 p    3 1.00
             2.9412494    0.15591627210511
             0.6834831    0.60768372820466
             0.2222899    0.39195739529202

3 0
 s    3 1.00
             71.616837    0.15432897000916
             13.045096    0.53532814003178
             3.5305122     0.4446345400264
 s    3 1.00
             2.9412494  -0.099967230075964
             0.6834831    0.39951283030359
             0.2222899    0.70011547053201
 p    3 1.00
             2.9412494    0.15591627210511
             0.6834831    0.60768372820466
             0.2222899    0.39195739529202

4 0
 s    3 1.00
             71.616837    0.15432897000916
             13.045096    0.53532814003178
             3.5305122     0.4446345400264
 s    3 1.00
             2.9412494  -0.099967230075964
             0.6834831    0.39951283030359
             0.2222899    0.70011547053201
 p    3 1.00
             2.9412494    0.15591627210511
             0.6834831    0.60768372820466
             0.2222899    0.39195739529202

5 0
 s    3 1.00
             71.616837    0.15432897000916
             13.045096    0.53532814003178
             3.5305122     0.4446345400264
 s    3 1.00
             2.9412494  -0.099967230075964
             0.6834831    0.39951283030359
             0.2222899    0.70011547053201
 p    3 1.00
             2.9412494    0.15591627210511
             0.6834831    0.60768372820466
             0.2222899    0.39195739529202

6 0
 s    3 1.00
             71.616837    0.15432897000916
             13.045096    0.53532814003178
             3.5305122     0.4446345400264
 s    3 1.00
             2.9412494  -0.099967230075964
             0.6834831    0.39951283030359
             0.2222899    0.70011547053201
 p    3 1.00
             2.9412494    0.15591627210511
             0.6834831    0.60768372820466
             0.2222899    0.39195739529202

7 0
 s    3 1.00
            3.42525091    0.15432897070298
            0.62391373    0.53532814243847
             0.1688554    0.44463454202535

8 0
 s    3 1.00
            3.42525091    0.15432897070298
            0.62391373    0.53532814243847
             0.1688554    0.44463454202535

9 0
 s    3 1.00
            3.42525091    0.15432897070298
            0.62391373    0.53532814243847
             0.1688554    0.44463454202535

10 0
 s    3 1.00
            3.42525091    0.15432897070298
            0.62391373    0.53532814243847
             0.1688554    0.44463454202535

11 0
 s    3 1.00
            3.42525091    0.15432897070298
            0.62391373    0.53532814243847
             0.1688554    0.44463454202535

12 0
 s    3 1.00
            3.42525091    0.15432897070298
            0.62391373    0.53532814243847
             0.1688554    0.44463454202535

[6d]
[10f]
[15g]

[MO]
 Sym= B2u
 Ene=    -11.03350492
 Spin= Alpha
 Occup=    2.00000
   1                     0
   2                     0
   3    -0.0037186615410912
   4    -2.2770234767049e-19
   5                     0
   6      0.49629610963723
   7     0.014421390969542
   8    -0.00052778080609916
   9    0.0018428377443254
  10                     0
  11      0.49629610963723
  12     0.014421390969542
  13    -0.00052778080609916
  14    -0.0018428377443254
  15                     0
  16                     0
  17                     0
  18    -0.0037186615410912
  19    -2.2770234767049e-19
  20                     0
  21     -0.49629610963723
  22    -0.014421390969542
  23    -0.00052778080609916
  24    0.0018428377443254
  25                     0
  26     -0.49629610963723
  27    -0.014421390969542
  28    -0.00052778080609916
  29    -0.0018428377443254
  30                     0
  31                     0
  32    -0.0032600812050335
  33    -0.0032600812050335
  34                     0
  35    0.0032600812050335
  36    0.0032600812050335
 Sym= B3u
 Ene=    -11.03349069
 Spin= Alpha
 Occup=    2.00000
   1      0.56491651188717
   2     0.016239527070785
   3    -3.5872675029146e-20
   4    0.00058584524214038
   5                     0
   6      0.29452366555252
   7    0.0087359638499667
   8    0.0018003540498664
   9    -0.0026780497282509
  10                     0
  11     -0.29452366555252
  12    -0.0087359638499667
  13    -0.0018003540498664
  14    -0.0026780497282509
  15                     0
  16     -0.56491651188717
  17    -0.016239527070785
  18    -3.5872675029146e-20
  19    0.00058584524214038
  20                     0
  21     -0.29452366555252
  22    -0.0087359638499667
  23    0.0018003540498664
  24    -0.0026780497282509
  25                     0
  26      0.29452366555252
  27    0.0087359638499667
  28    -0.0018003540498664
  29    -0.0026780497282509
  30                     0
  31    -0.0037083424964671
  32    -0.0019390059490623
  33    0.0019390059490623
  34    0.0037083424964671
  35    0.0019390059490623
  36    -0.0019390059490623
 Sym= Ag
 Ene=    -11.03348203
 Spin= Alpha
 Occup=    2.00000
   1      0.38901538235071
   2    0.0084162367807305
   3    -9.672584283962e-20
   4    0.0015796528910534
   5                     0
   6      0.41340809463943
   7    0.0094660632874391
   8    0.0012493623685645
   9    0.00083121234685012
  10                     0
  11      0.41340809463943
  12    0.0094660632874391
  13    0.0012493623685645
  14    -0.00083121234685012
  15                     0
  16      0.38901538235071
  17    0.0084162367807305
  18    9.672584283962e-20
  19    -0.0015796528910534
  20                     0
  21      0.41340809463943
  22    0.0094660632874391
  23    -0.0012493623685645
  24    -0.00083121234685012
  25                     0
  26      0.41340809463943
  27    0.0094660632874391
  28    -0.0012493623685645
  29    0.00083121234685012
  30                     0
  31    -0.0026717136530045
  32    -0.0028379718275114
  33    -0.0028379718275114
  34    -0.0026717136530045
  35    -0.0028379718275114
  36    -0.0028379718275114
 Sym= B1g
 Ene=    -11.03313716
 Spin= Alpha
 Occup=    2.00000
   1                     0
   2                     0
   3    -0.0038501023615866
   4    -2.3575077667533e-19
   5                     0
   6      0.49593708284535
   7     0.021363551560609
   8    -0.0004524124774164
   9    -0.002483170714535
  10                     0
  11     -0.49593708284535
  12    -0.021363551560609
  13    0.0004524124774164
  14    -0.002483170714535
  15                     0
  16                     0
  17                     0
  18    0.0038501023615866
  19    2.3575077667533e-19
  20                     0
  21      0.49593708284535
  22     0.021363551560609
  23    0.0004524124774164
  24     0.002483170714535
  25                     0
  26     -0.49593708284535
  27    -0.021363551560609
  28    -0.0004524124774164
  29     0.002483170714535
  30                     0
  31                     0
  32    -0.0034075719804373
  33    0.0034075719804373
  34                     0
  35    -0.0034075719804373
  36    0.0034075719804373
 Sym= Ag
 Ene=    -11.03312251
 Spin= Alpha
 Occup=    2.00000
   1      0.58394091805804
   2     0.024919669873596
   3    1.1267904530825e-19
   4    -0.0018401884590186
   5                     0
   6     -0.27470064523457
   7     -0.01207034331461
   8    0.0025204270280709
   9    -0.0023936587412035
  10                     0
  11     -0.27470064523457
  12     -0.01207034331461
  13    0.0025204270280709
  14    0.0023936587412035
  15                     0
  16      0.58394091805804
  17     0.024919669873596
  18    -1.1267904530825e-19
  19    0.0018401884590186
  20                     0
  21     -0.27470064523457
  22     -0.01207034331461
  23    -0.0025204270280709
  24    0.0023936587412035
  25                     0
  26     -0.27470064523457
  27     -0.01207034331461
  28    -0.0025204270280709
  29    -0.0023936587412035
  30                     0
  31    -0.0040142974933575
  32    0.0018876023062401
  33    0.0018876023062401
  34    -0.0040142974933575
  35    0.0018876023062401
  36    0.0018876023062401
 Sym= B3u
 Ene=    -11.03297863
 Spin= Alpha
 Occup=    2.00000
   1     -0.41608472415198
   2    -0.021024518332548
   3    -1.4659888010441e-19
   4    0.0023941413998954
   5                     0
   6      0.39900310378736
   7     0.020526442662186
   8    -0.0021206398951414
   9    -0.001149727793704
  10                     0
  11     -0.39900310378736
  12    -0.020526442662186
  13    0.0021206398951414
  14    -0.001149727793704
  15                     0
  16      0.41608472415198
  17     0.021024518332548
  18    -1.4659888010441e-19
  19    0.0023941413998954
  20                     0
  21     -0.39900310378736
  22    -0.020526442662186
  23    -0.0021206398951414
  24    -0.001149727793704
  25                     0
  26      0.39900310378736
  27     0.020526442662186
  28    0.0021206398951414
  29    -0.001149727793704
  30                     0
  31    0.0029522508922223
  32    -0.0028384475909169
  33    0.0028384475909169
  34    -0.0029522508922223
  35    0.0028384475909169
  36    -0.0028384475909169
 Sym= Ag
 Ene=    -1.089698215
 Spin= Alpha
 Occup=    2.00000
   1      -0.1046192222403
   2      0.26513097495135
   3    3.7585687035088e-18
   4    -0.061382085122431
   5                     0
   6     -0.10460820399361
   7      0.26511355485586
   8     -0.05318353694743
   9    -0.030695691787247
  10                     0
  11     -0.10460820399361
  12      0.26511355485586
  13     -0.05318353694743
  14     0.030695691787247
  15                     0
  16      -0.1046192222403
  17      0.26513097495135
  18    -3.7585687035088e-18
  19     0.061382085122431
  20                     0
  21     -0.10460820399361
  22      0.26511355485586
  23      0.05318353694743
  24     0.030695691787247
  25                     0
  26     -0.10460820399361
  27      0.26511355485586
  28      0.05318353694743
  29    -0.030695691787247
  30                     0
  31     0.047258881944391
  32     0.047224074214213
  33     0.047224074214213
  34     0.047258881944391
  35     0.047224074214213
  36     0.047224074214213
 Sym= B3u
 Ene=   -0.9549834699
 Spin= Alpha
 Occup=    2.00000
   1     -0.14633102688522
   2       0.3954052385712
   3    1.6514276611193e-18
   4    -0.026969860408226
   5                     0
   6     -0.07315695978847
   7      0.19768858661156
   8    -0.067944609255332
   9      0.09066843636691
  10                     0
  11      0.07315695978847
  12     -0.19768858661156
  13     0.067944609255332
  14      0.09066843636691
  15                     0
  16      0.14633102688522
  17      -0.3954052385712
  18    1.6514276611193e-18
  19    -0.026969860408226
  20                     0
  21      0.07315695978847
  22     -0.19768858661156
  23    -0.067944609255332
  24      0.09066843636691
  25                     0
  26     -0.07315695978847
  27      0.19768858661156
  28     0.067944609255332
  29      0.09066843636691
  30                     0
  31      0.10910384686557
  32     0.054523130085163
  33    -0.054523130085163
  34     -0.10910384686557
  35    -0.054523130085163
  36     0.054523130085163
 Sym= B2u
 Ene=   -0.9549457681
 Spin= Alpha
 Occup=    2.00000
   1                     0
   2                     0
   3      0.12991877359552
   4    7.9552305116451e-18
   5                     0
   6     -0.12672729738348
   7      0.34245389924344
   8     0.012190628773228
   9    -0.067946575762396
  10                     0
  11     -0.12672729738348
  12      0.34245389924344
  13     0.012190628773228
  14     0.067946575762396
  15                     0
  16                     0
  17                     0
  18      0.12991877359552
  19    7.9552305116451e-18
  20                     0
  21      0.12672729738348
  22     -0.34245389924344
  23     0.012190628773228
  24    -0.067946575762396
  25                     0
  26      0.12672729738348
  27     -0.34245389924344
  28     0.012190628773228
  29     0.067946575762396
  30                     0
  31                     0
  32     0.094430179350021
  33     0.094430179350021
  34                     0
  35    -0.094430179350021
  36    -0.094430179350021
 Sym= B1g
 Ene=   -0.7673072522
 Spin= Alpha
 Occup=    2.00000
   1                     0
   2                     0
   3      0.22988341598736
   4    1.4076299478299e-17
   5                     0
   6       -0.098993529886
   7       0.2920914191927
   8    0.0060431676670875
   9      0.13623237839018
  10                     0
  11        0.098993529886
  12      -0.2920914191927
  13    -0.0060431676670875
  14      0.13623237839018
  15                     0
  16                     0
  17                     0
  18     -0.22988341598736
  19    -1.4076299478299e-17
  20                     0
  21       -0.098993529886
  22       0.2920914191927
  23    -0.0060431676670875
  24     -0.13623237839018
  25                     0
  26        0.098993529886
  27      -0.2920914191927
  28    0.0060431676670875
  29     -0.13623237839018
  30                     0
  31                     0
  32      0.15466434369712
  33     -0.15466434369712
  34                     0
  35      0.15466434369712
  36     -0.15466434369712
 Sym= Ag
 Ene=   -0.7673048818
 Spin= Alpha
 Occup=    2.00000
   1     -0.11431397560914
   2      0.33728828047261
   3    -5.1975464652231e-18
   4     0.084882375372913
   5                     0
   6     0.057163135216378
   7     -0.16866627473814
   8     -0.13609474433631
   9      0.15127512708727
  10                     0
  11     0.057163135216378
  12     -0.16866627473814
  13     -0.13609474433631
  14     -0.15127512708727
  15                     0
  16     -0.11431397560914
  17      0.33728828047261
  18    5.1975464652231e-18
  19    -0.084882375372913
  20                     0
  21     0.057163135216378
  22     -0.16866627473814
  23      0.13609474433631
  24     -0.15127512708727
  25                     0
  26     0.057163135216378
  27     -0.16866627473814
  28      0.13609474433631
  29      0.15127512708727
  30                     0
  31       0.1787383686843
  32      -0.0891954304763
  33      -0.0891954304763
  34       0.1787383686843
  35      -0.0891954304763
  36      -0.0891954304763
 Sym= Ag
 Ene=   -0.6620247761
 Spin= Alpha
 Occup=    2.00000
   1    -0.0086416159233609
   2     0.035287012280557
   3    -1.4356299294601e-17
   4      0.23445616000624
   5                     0
   6    -0.008757756882234
   7     0.035678100915422
   8      0.20315204132402
   9      0.11711812102138
  10                     0
  11    -0.008757756882234
  12     0.035678100915422
  13      0.20315204132402
  14     -0.11711812102138
  15                     0
  16    -0.0086416159233609
  17     0.035287012280557
  18    1.4356299294601e-17
  19     -0.23445616000624
  20                     0
  21    -0.008757756882234
  22     0.035678100915422
  23     -0.20315204132402
  24     -0.11711812102138
  25                     0
  26    -0.008757756882234
  27     0.035678100915422
  28     -0.20315204132402
  29      0.11711812102138
  30                     0
  31       0.1755009354859
  32      0.17566226231093
  33      0.17566226231093
  34       0.1755009354859
  35      0.17566226231093
  36      0.17566226231093
 Sym= B3u
 Ene=   -0.5955725001
 Spin= Alpha
 Occup=    2.00000
   1     0.065345711776022
   2     -0.21932041581758
   3    1.004770929415e-17
   4      -0.1640915454341
   5                     0
   6    -0.065385011856873
   7      0.21945751591928
   8      0.14163935092057
   9     0.081909724343619
  10                     0
  11     0.065385011856873
  12     -0.21945751591928
  13     -0.14163935092057
  14     0.081909724343619
  15                     0
  16    -0.065345711776022
  17      0.21932041581758
  18    1.004770929415e-17
  19      -0.1640915454341
  20                     0
  21     0.065385011856873
  22     -0.21945751591928
  23      0.14163935092057
  24     0.081909724343619
  25                     0
  26    -0.065385011856873
  27      0.21945751591928
  28     -0.14163935092057
  29     0.081909724343619
  30                     0
  31     -0.23175785326941
  32      0.23140133335416
  33     -0.23140133335416
  34      0.23175785326941
  35     -0.23140133335416
  36      0.23140133335416
 Sym= B2u
 Ene=   -0.5526024792
 Spin= Alpha
 Occup=    2.00000
   1                     0
   2                     0
   3     -0.33184705144081
   4    -2.0319771467674e-17
   5                     0
   6    -7.1710202006673e-05
   7    0.00022882604597353
   8      0.16543201615072
   9     -0.28814518793555
  10                     0
  11    -7.1710202006673e-05
  12    0.00022882604597353
  13      0.16543201615072
  14      0.28814518793555
  15                     0
  16                     0
  17                     0
  18     -0.33184705144081
  19    -2.0319771467674e-17
  20                     0
  21    7.1710202006673e-05
  22    -0.00022882604597353
  23      0.16543201615072
  24     -0.28814518793555
  25                     0
  26    7.1710202006673e-05
  27    -0.00022882604597353
  28      0.16543201615072
  29      0.28814518793555
  30                     0
  31                     0
  32    -0.00065014833508302
  33    -0.00065014833508302
  34                     0
  35    0.00065014833508302
  36    0.00065014833508302
 Sym= B3u
 Ene=   -0.5341454285
 Spin= Alpha
 Occup=    2.00000
   1    -0.026799708592151
   2     0.085209687249211
   3    2.2581875032128e-17
   4     -0.36879000619363
   5                     0
   6    -0.013319242611926
   7     0.042314856454291
   8      -0.2041000520949
   9    -0.015695084555625
  10                     0
  11     0.013319242611926
  12    -0.042314856454291
  13       0.2041000520949
  14    -0.015695084555624
  15                     0
  16     0.026799708592151
  17    -0.085209687249211
  18    2.2581875032128e-17
  19     -0.36879000619363
  20                     0
  21     0.013319242611926
  22    -0.042314856454291
  23      -0.2041000520949
  24    -0.015695084555625
  25                     0
  26    -0.013319242611926
  27     0.042314856454291
  28       0.2041000520949
  29    -0.015695084555624
  30                     0
  31     -0.28273910764838
  32     -0.14168817751576
  33      0.14168817751576
  34      0.28273910764838
  35      0.14168817751576
  36     -0.14168817751576
 Sym= B2u
 Ene=   -0.5341075592
 Spin= Alpha
 Occup=    2.00000
   1                     0
   2                     0
   3     -0.10303046067386
   4    -6.3087961939462e-18
   5                     0
   6     0.023138391110425
   7    -0.073514720252799
   8      0.25158363657786
   9      0.20321250417016
  10                     0
  11     0.023138391110425
  12    -0.073514720252799
  13      0.25158363657786
  14     -0.20321250417016
  15                     0
  16                     0
  17                     0
  18     -0.10303046067386
  19    -6.3087961939462e-18
  20                     0
  21    -0.023138391110425
  22     0.073514720252799
  23      0.25158363657786
  24      0.20321250417016
  25                     0
  26    -0.023138391110425
  27     0.073514720252799
  28      0.25158363657786
  29     -0.20321250417016
  30                     0
  31                     0
  32      0.24507630326248
  33      0.24507630326248
  34                     0
  35     -0.24507630326248
  36     -0.24507630326248
 Sym= B1u
 Ene=   -0.4554132081
 Spin= Alpha
 Occup=    2.00000
   1                     0
   2                     0
   3                     0
   4                     0
   5      0.33440993161114
   6                     0
   7                     0
   8                     0
   9                     0
  10      0.33440586665018
  11                     0
  12                     0
  13                     0
  14                     0
  15      0.33440586665018
  16                     0
  17                     0
  18                     0
  19                     0
  20      0.33440993161114
  21                     0
  22                     0
  23                     0
  24                     0
  25      0.33440586665018
  26                     0
  27                     0
  28                     0
  29                     0
  30      0.33440586665018
  31                     0
  32                     0
  33                     0
  34                     0
  35                     0
  36                     0
 Sym= Ag
 Ene=   -0.4330767773
 Spin= Alpha
 Occup=    2.00000
   1     0.008057344570919
   2    -0.018375739261163
   3    -1.7254795990162e-17
   4      0.28179220330588
   5                     0
   6    -0.0040313755411193
   7    0.0091776321782647
   8     0.022711353911183
   9     -0.32111957464809
  10                     0
  11    -0.0040313755411193
  12    0.0091776321782647
  13     0.022711353911182
  14      0.32111957464809
  15                     0
  16     0.008057344570919
  17    -0.018375739261163
  18    1.7254795990162e-17
  19     -0.28179220330588
  20                     0
  21    -0.0040313755411193
  22    0.0091776321782647
  23    -0.022711353911183
  24      0.32111957464809
  25                     0
  26    -0.0040313755411193
  27    0.0091776321782647
  28    -0.022711353911182
  29     -0.32111957464809
  30                     0
  31      0.29732859455802
  32     -0.14871502197734
  33     -0.14871502197734
  34      0.29732859455802
  35     -0.14871502197734
  36     -0.14871502197734
 Sym= B1g
 Ene=   -0.4329690954
 Spin= Alpha
 Occup=    2.00000
   1                     0
   2                     0
   3     -0.33422927036079
   4    -2.0465640306435e-17
   5                     0
   6    0.0069782522007723
   7    -0.015898154295146
   8      0.29491293480524
   9    -0.022657467928437
  10                     0
  11    -0.0069782522007723
  12     0.015898154295146
  13     -0.29491293480524
  14    -0.022657467928437
  15                     0
  16                     0
  17                     0
  18      0.33422927036079
  19    2.0465640306435e-17
  20                     0
  21    0.0069782522007723
  22    -0.015898154295146
  23     -0.29491293480524
  24     0.022657467928437
  25                     0
  26    -0.0069782522007723
  27     0.015898154295146
  28      0.29491293480524
  29     0.022657467928437
  30                     0
  31                     0
  32      0.25755292068366
  33     -0.25755292068366
  34                     0
  35      0.25755292068366
  36     -0.25755292068366
 Sym= B3g
 Ene=   -0.2794603922
 Spin= Alpha
 Occup=    2.00000
   1                     0
   2                     0
   3                     0
   4                     0
   5                     0
   6                     0
   7                     0
   8                     0
   9                     0
  10      0.46050356413556
  11                     0
  12                     0
  13                     0
  14                     0
  15      0.46050356413556
  16                     0
  17                     0
  18                     0
  19                     0
  20                     0
  21                     0
  22                     0
  23                     0
  24                     0
  25     -0.46050356413556
  26                     0
  27                     0
  28                     0
  29                     0
  30     -0.46050356413556
  31                     0
  32                     0
  33                     0
  34                     0
  35                     0
  36                     0
 Sym= B2g
 Ene=   -0.2794551874
 Spin= Alpha
 Occup=    2.00000
   1                     0
   2                     0
   3                     0
   4                     0
   5      0.53175483436044
   6                     0
   7                     0
   8                     0
   9                     0
  10      0.26586652608452
  11                     0
  12                     0
  13                     0
  14                     0
  15     -0.26586652608452
  16                     0
  17                     0
  18                     0
  19                     0
  20     -0.53175483436044
  21                     0
  22                     0
  23                     0
  24                     0
  25     -0.26586652608452
  26                     0
  27                     0
  28                     0
  29                     0
  30      0.26586652608452
  31                     0
  32                     0
  33                     0
  34                     0
  35                     0
  36                     0
 Sym= B1u
 Ene=    0.2683006259
 Spin= Alpha
 Occup=    0.00000
   1                     0
   2                     0
   3                     0
   4                     0
   5      0.65794606411051
   6                     0
   7                     0
   8                     0
   9                     0
  10     -0.32897383382013
  11                     0
  12                     0
  13                     0
  14                     0
  15     -0.32897383382013
  16                     0
  17                     0
  18                     0
  19                     0
  20      0.65794606411051
  21                     0
  22                     0
  23                     0
  24                     0
  25     -0.32897383382013
  26                     0
  27                     0
  28                     0
  29                     0
  30     -0.32897383382013
  31                     0
  32                     0
  33                     0
  34                     0
  35                     0
  36                     0
 Sym= Au
 Ene=    0.2683188148
 Spin= Alpha
 Occup=    0.00000
   1                     0
   2                     0
   3                     0
   4                     0
   5                     0
   6                     0
   7                     0
   8                     0
   9                     0
  10      0.56980225207943
  11                     0
  12                     0
  13                     0
  14                     0
  15     -0.56980225207943
  16                     0
  17                     0
  18                     0
  19                     0
  20                     0
  21                     0
  22                     0
  23                     0
  24                     0
  25      0.56980225207943
  26                     0
  27                     0
  28                     0
  29                     0
  30     -0.56980225207943
  31                     0
  32                     0
  33                     0
  34                     0
  35                     0
  36                     0
 Sym= B2g
 Ene=    0.5026727509
 Spin= Alpha
 Occup=    0.00000
   1                     0
   2                     0
   3                     0
   4                     0
   5     -0.52191204816651
   6                     0
   7                     0
   8                     0
   9                     0
  10      0.52192796834299
  11                     0
  12                     0
  13                     0
  14                     0
  15     -0.52192796834299
  16                     0
  17                     0
  18                     0
  19                     0
  20      0.52191204816651
  21                     0
  22                     0
  23                     0
  24                     0
  25     -0.52192796834299
  26                     0
  27                     0
  28                     0
  29                     0
  30      0.52192796834299
  31                     0
  32                     0
  33                     0
  34                     0
  35                     0
  36                     0
 Sym= Ag
 Ene=    0.5804888665
 Spin= Alpha
 Occup=    0.00000
   1     0.052588439279553
   2     -0.33475527431624
   3    1.9340608005355e-17
   4     -0.31585609857178
   5                     0
   6     0.052606599816847
   7     -0.33479435949195
   8     -0.27400821323016
   9      -0.1582852970048
  10                     0
  11     0.052606599816847
  12     -0.33479435949195
  13     -0.27400821323016
  14       0.1582852970048
  15                     0
  16     0.052588439279553
  17     -0.33475527431624
  18    -1.9340608005355e-17